LAMMPS Description

60 atoms
60 bonds

2 atom types
1 bond types

-20 20 xlo xhi
-20 20 ylo yhi
-2 2 zlo zhi

Atoms # id mol type xu yu zu

1 1 1	9.36866 0.00000 0.00000
2 1 1	9.31733 0.97929 0.00000
3 1 1	9.16393 1.94785 0.00000
4 1 1	8.91012 2.89507 0.00000
5 1 1	8.55869 3.81057 0.00000
6 1 1	8.11349 4.68433 0.00000
7 1 1	7.57940 5.50676 0.00000
8 1 1	6.96227 6.26885 0.00000
9 1 1	6.26886 6.96227 0.00000
10 1 1	5.50676 7.57940 0.00000
11 1 1	4.68433 8.11349 0.00000
12 1 1	3.81058 8.55869 0.00000
13 1 1	2.89508 8.91012 0.00000
14 1 1	1.94786 9.16393 0.00000
15 1 1	0.97929 9.31733 0.00000
16 1 1	0.00000 9.36866 0.00000
17 1 1	-0.97929 9.31733 0.00000
18 1 1	-1.94785 9.16393 0.00000
19 1 1	-2.89507 8.91012 0.00000
20 1 1	-3.81057 8.55869 0.00000
21 1 1	-4.68432 8.11350 0.00000
22 1 1	-5.50675 7.57940 0.00000
23 1 1	-6.26885 6.96227 0.00000
24 1 1	-6.96226 6.26886 0.00000
25 1 1	-7.57940 5.50676 0.00000
26 1 1	-8.11349 4.68433 0.00000
27 1 1	-8.55869 3.81058 0.00000
28 1 1	-8.91012 2.89508 0.00000
29 1 1	-9.16393 1.94786 0.00000
30 1 1	-9.31733 0.97930 0.00000
31 1 1	-9.36866 0.00001 0.00000
32 1 1	-9.31733 -0.97928 0.00000
33 1 1	-9.16393 -1.94785 0.00000
34 1 1	-8.91012 -2.89507 0.00000
35 1 1	-8.55870 -3.81057 0.00000
36 1 1	-8.11350 -4.68432 0.00000
37 1 1	-7.57941 -5.50675 0.00000
38 1 1	-6.96227 -6.26885 0.00000
39 1 1	-6.26886 -6.96226 0.00000
40 1 1	-5.50676 -7.57940 0.00000
41 1 1	-4.68433 -8.11349 0.00000
42 1 1	-3.81058 -8.55869 0.00000
43 1 1	-2.89508 -8.91012 0.00000
44 1 1	-1.94786 -9.16393 0.00000
45 1 1	-0.97930 -9.31733 0.00000
46 1 1	-0.00001 -9.36866 0.00000
47 1 1	0.97928 -9.31733 0.00000
48 1 1	1.94784 -9.16393 0.00000
49 1 1	2.89506 -8.91012 0.00000
50 1 1	3.81057 -8.55870 0.00000
51 1 1	4.68432 -8.11350 0.00000
52 1 1	5.50675 -7.57941 0.00000
53 1 1	6.26885 -6.96228 0.00000
54 1 1	6.96226 -6.26886 0.00000
55 1 1	7.57940 -5.50677 0.00000
56 1 1	8.11349 -4.68434 0.00000
57 1 1	8.55869 -3.81059 0.00000
58 1 1	8.91012 -2.89508 0.00000
59 1 1	9.16393 -1.94786 0.00000
60 1 1	9.31733 -0.97930 0.00000

Bonds

1 1 1 2
2 1 2 3
3 1 3 4
4 1 4 5
5 1 5 6
6 1 6 7
7 1 7 8
8 1 8 9
9 1 9 10
10 1 10 11
11 1 11 12
12 1 12 13
13 1 13 14
14 1 14 15
15 1 15 16
16 1 16 17
17 1 17 18
18 1 18 19
19 1 19 20
20 1 20 21
21 1 21 22
22 1 22 23
23 1 23 24
24 1 24 25
25 1 25 26
26 1 26 27
27 1 27 28
28 1 28 29
29 1 29 30
30 1 30 31
31 1 31 32
32 1 32 33
33 1 33 34
34 1 34 35
35 1 35 36
36 1 36 37
37 1 37 38
38 1 38 39
39 1 39 40
40 1 40 41
41 1 41 42
42 1 42 43
43 1 43 44
44 1 44 45
45 1 45 46
46 1 46 47
47 1 47 48
48 1 48 49
49 1 49 50
50 1 50 51
51 1 51 52
52 1 52 53
53 1 53 54
54 1 54 55
55 1 55 56
56 1 56 57
57 1 57 58
58 1 58 59
59 1 59 60
60 1 1 60
