LAMMPS Description

81 atoms
80 bonds

2 atom types
1 bond types

-20 20 xlo xhi
-20 20 ylo yhi
-2 2 zlo zhi

Atoms # id mol type xu yu zu

1 1 1	0.00000 0.00000 0.00000
2 1 1	0.96500 0.00000 0.00000
3 1 1	1.93000 0.00000 0.00000
4 1 1	2.89500 0.00000 0.00000
5 1 1	3.86000 0.00000 0.00000
6 1 1	4.82500 0.00000 0.00000
7 1 1	5.79000 0.00000 0.00000
8 1 1	6.75500 0.00000 0.00000
9 1 1	7.72000 0.00000 0.00000
10 1 1	8.68500 0.00000 0.00000
11 1 1	9.65000 0.00000 0.00000
12 1 1	10.61500 0.00000 0.00000
13 1 1	11.58000 0.00000 0.00000
14 1 1	12.54500 0.00000 0.00000
15 1 1	13.51000 0.00000 0.00000
16 1 1	14.47500 0.00000 0.00000
17 1 1	15.44000 0.00000 0.00000
18 1 1	16.40500 0.00000 0.00000
19 1 1	17.37000 0.00000 0.00000
20 1 1	18.33500 0.00000 0.00000
21 1 1	19.30000 0.00000 0.00000
22 1 1	0.00004 0.96500 0.00000
23 1 1	0.00009 1.93000 0.00000
24 1 1	0.00013 2.89500 0.00000
25 1 1	0.00018 3.86000 0.00000
26 1 1	0.00022 4.82500 0.00000
27 1 1	0.00027 5.79000 0.00000
28 1 1	0.00031 6.75500 0.00000
29 1 1	0.00036 7.72000 0.00000
30 1 1	0.00040 8.68500 0.00000
31 1 1	0.00045 9.65000 0.00000
32 1 1	0.00049 10.61500 0.00000
33 1 1	0.00054 11.58000 0.00000
34 1 1	0.00058 12.54500 0.00000
35 1 1	0.00063 13.51000 0.00000
36 1 1	0.00067 14.47500 0.00000
37 1 1	0.00072 15.44000 0.00000
38 1 1	0.00076 16.40500 0.00000
39 1 1	0.00080 17.37000 0.00000
40 1 1	0.00085 18.33500 0.00000
41 1 1	0.00089 19.30000 0.00000
42 1 1	-0.96500 0.00009 0.00000
43 1 1	-1.93000 0.00018 0.00000
44 1 1	-2.89500 0.00027 0.00000
45 1 1	-3.86000 0.00036 0.00000
46 1 1	-4.82500 0.00045 0.00000
47 1 1	-5.79000 0.00054 0.00000
48 1 1	-6.75500 0.00063 0.00000
49 1 1	-7.72000 0.00072 0.00000
50 1 1	-8.68500 0.00080 0.00000
51 1 1	-9.65000 0.00089 0.00000
52 1 1	-10.61500 0.00098 0.00000
53 1 1	-11.58000 0.00107 0.00000
54 1 1	-12.54500 0.00116 0.00000
55 1 1	-13.51000 0.00125 0.00000
56 1 1	-14.47500 0.00134 0.00000
57 1 1	-15.44000 0.00143 0.00000
58 1 1	-16.40500 0.00152 0.00000
59 1 1	-17.37000 0.00161 0.00000
60 1 1	-18.33500 0.00170 0.00000
61 1 1	-19.30000 0.00179 0.00000
62 1 1	-0.00013 -0.96500 0.00000
63 1 1	-0.00027 -1.93000 0.00000
64 1 1	-0.00040 -2.89500 0.00000
65 1 1	-0.00054 -3.86000 0.00000
66 1 1	-0.00067 -4.82500 0.00000
67 1 1	-0.00080 -5.79000 0.00000
68 1 1	-0.00094 -6.75500 0.00000
69 1 1	-0.00107 -7.72000 0.00000
70 1 1	-0.00121 -8.68500 0.00000
71 1 1	-0.00134 -9.65000 0.00000
72 1 1	-0.00148 -10.61500 0.00000
73 1 1	-0.00161 -11.58000 0.00000
74 1 1	-0.00174 -12.54500 0.00000
75 1 1	-0.00188 -13.51000 0.00000
76 1 1	-0.00201 -14.47500 0.00000
77 1 1	-0.00215 -15.44000 0.00000
78 1 1	-0.00228 -16.40500 0.00000
79 1 1	-0.00241 -17.37000 0.00000
80 1 1	-0.00255 -18.33500 0.00000
81 1 1	-0.00268 -19.30000 0.00000

Bonds

1 1 1 2
2 1 2 3
3 1 3 4
4 1 4 5
5 1 5 6
6 1 6 7
7 1 7 8
8 1 8 9
9 1 9 10
10 1 10 11
11 1 11 12
12 1 12 13
13 1 13 14
14 1 14 15
15 1 15 16
16 1 16 17
17 1 17 18
18 1 18 19
19 1 19 20
20 1 20 21
21 1 1 22
22 1 22 23
23 1 23 24
24 1 24 25
25 1 25 26
26 1 26 27
27 1 27 28
28 1 28 29
29 1 29 30
30 1 30 31
31 1 31 32
32 1 32 33
33 1 33 34
34 1 34 35
35 1 35 36
36 1 36 37
37 1 37 38
38 1 38 39
39 1 39 40
40 1 40 41
41 1 1 42
42 1 42 43
43 1 43 44
44 1 44 45
45 1 45 46
46 1 46 47
47 1 47 48
48 1 48 49
49 1 49 50
50 1 50 51
51 1 51 52
52 1 52 53
53 1 53 54
54 1 54 55
55 1 55 56
56 1 56 57
57 1 57 58
58 1 58 59
59 1 59 60
60 1 60 61
61 1 1 62
62 1 62 63
63 1 63 64
64 1 64 65
65 1 65 66
66 1 66 67
67 1 67 68
68 1 68 69
69 1 69 70
70 1 70 71
71 1 71 72
72 1 72 73
73 1 73 74
74 1 74 75
75 1 75 76
76 1 76 77
77 1 77 78
78 1 78 79
79 1 79 80
80 1 80 81
