LAMMPS Description

200 atoms
195 bonds

2 atom types
1 bond types

-20 20 xlo xhi
-20 20 ylo yhi
-2 2 zlo zhi

Atoms # id mol type xu yu zu

1 1 1	-19.30000 -10.00000 0.00000
2 1 1	-18.33500 -10.00000 0.00000
3 1 1	-17.37000 -10.00000 0.00000
4 1 1	-16.40500 -10.00000 0.00000
5 1 1	-15.44000 -10.00000 0.00000
6 1 1	-14.47500 -10.00000 0.00000
7 1 1	-13.51000 -10.00000 0.00000
8 1 1	-12.54500 -10.00000 0.00000
9 1 1	-11.58000 -10.00000 0.00000
10 1 1	-10.61500 -10.00000 0.00000
11 1 1	-9.65000 -10.00000 0.00000
12 1 1	-8.68500 -10.00000 0.00000
13 1 1	-7.72000 -10.00000 0.00000
14 1 1	-6.75500 -10.00000 0.00000
15 1 1	-5.79000 -10.00000 0.00000
16 1 1	-4.82500 -10.00000 0.00000
17 1 1	-3.86000 -10.00000 0.00000
18 1 1	-2.89500 -10.00000 0.00000
19 1 1	-1.93000 -10.00000 0.00000
20 1 1	-0.96500 -10.00000 0.00000
21 1 1	-0.00000 -10.00000 0.00000
22 1 1	0.96500 -10.00000 0.00000
23 1 1	1.93000 -10.00000 0.00000
24 1 1	2.89500 -10.00000 0.00000
25 1 1	3.86000 -10.00000 0.00000
26 1 1	4.82500 -10.00000 0.00000
27 1 1	5.79000 -10.00000 0.00000
28 1 1	6.75500 -10.00000 0.00000
29 1 1	7.72000 -10.00000 0.00000
30 1 1	8.68500 -10.00000 0.00000
31 1 1	9.65000 -10.00000 0.00000
32 1 1	10.61500 -10.00000 0.00000
33 1 1	11.58000 -10.00000 0.00000
34 1 1	12.54500 -10.00000 0.00000
35 1 1	13.51000 -10.00000 0.00000
36 1 1	14.47500 -10.00000 0.00000
37 1 1	15.44000 -10.00000 0.00000
38 1 1	16.40500 -10.00000 0.00000
39 1 1	17.37000 -10.00000 0.00000
40 1 1	18.33500 -10.00000 0.00000
41 2 1	-19.30000 -6.00000 0.00000
42 2 1	-18.33500 -6.00000 0.00000
43 2 1	-17.37000 -6.00000 0.00000
44 2 1	-16.40500 -6.00000 0.00000
45 2 1	-15.44000 -6.00000 0.00000
46 2 1	-14.47500 -6.00000 0.00000
47 2 1	-13.51000 -6.00000 0.00000
48 2 1	-12.54500 -6.00000 0.00000
49 2 1	-11.58000 -6.00000 0.00000
50 2 1	-10.61500 -6.00000 0.00000
51 2 1	-9.65000 -6.00000 0.00000
52 2 1	-8.68500 -6.00000 0.00000
53 2 1	-7.72000 -6.00000 0.00000
54 2 1	-6.75500 -6.00000 0.00000
55 2 1	-5.79000 -6.00000 0.00000
56 2 1	-4.82500 -6.00000 0.00000
57 2 1	-3.86000 -6.00000 0.00000
58 2 1	-2.89500 -6.00000 0.00000
59 2 1	-1.93000 -6.00000 0.00000
60 2 1	-0.96500 -6.00000 0.00000
61 2 1	-0.00000 -6.00000 0.00000
62 2 1	0.96500 -6.00000 0.00000
63 2 1	1.93000 -6.00000 0.00000
64 2 1	2.89500 -6.00000 0.00000
65 2 1	3.86000 -6.00000 0.00000
66 2 1	4.82500 -6.00000 0.00000
67 2 1	5.79000 -6.00000 0.00000
68 2 1	6.75500 -6.00000 0.00000
69 2 1	7.72000 -6.00000 0.00000
70 2 1	8.68500 -6.00000 0.00000
71 2 1	9.65000 -6.00000 0.00000
72 2 1	10.61500 -6.00000 0.00000
73 2 1	11.58000 -6.00000 0.00000
74 2 1	12.54500 -6.00000 0.00000
75 2 1	13.51000 -6.00000 0.00000
76 2 1	14.47500 -6.00000 0.00000
77 2 1	15.44000 -6.00000 0.00000
78 2 1	16.40500 -6.00000 0.00000
79 2 1	17.37000 -6.00000 0.00000
80 2 1	18.33500 -6.00000 0.00000
81 3 1	-19.30000 -2.00000 0.00000
82 3 1	-18.33500 -2.00000 0.00000
83 3 1	-17.37000 -2.00000 0.00000
84 3 1	-16.40500 -2.00000 0.00000
85 3 1	-15.44000 -2.00000 0.00000
86 3 1	-14.47500 -2.00000 0.00000
87 3 1	-13.51000 -2.00000 0.00000
88 3 1	-12.54500 -2.00000 0.00000
89 3 1	-11.58000 -2.00000 0.00000
90 3 1	-10.61500 -2.00000 0.00000
91 3 1	-9.65000 -2.00000 0.00000
92 3 1	-8.68500 -2.00000 0.00000
93 3 1	-7.72000 -2.00000 0.00000
94 3 1	-6.75500 -2.00000 0.00000
95 3 1	-5.79000 -2.00000 0.00000
96 3 1	-4.82500 -2.00000 0.00000
97 3 1	-3.86000 -2.00000 0.00000
98 3 1	-2.89500 -2.00000 0.00000
99 3 1	-1.93000 -2.00000 0.00000
100 3 1	-0.96500 -2.00000 0.00000
101 3 1	-0.00000 -2.00000 0.00000
102 3 1	0.96500 -2.00000 0.00000
103 3 1	1.93000 -2.00000 0.00000
104 3 1	2.89500 -2.00000 0.00000
105 3 1	3.86000 -2.00000 0.00000
106 3 1	4.82500 -2.00000 0.00000
107 3 1	5.79000 -2.00000 0.00000
108 3 1	6.75500 -2.00000 0.00000
109 3 1	7.72000 -2.00000 0.00000
110 3 1	8.68500 -2.00000 0.00000
111 3 1	9.65000 -2.00000 0.00000
112 3 1	10.61500 -2.00000 0.00000
113 3 1	11.58000 -2.00000 0.00000
114 3 1	12.54500 -2.00000 0.00000
115 3 1	13.51000 -2.00000 0.00000
116 3 1	14.47500 -2.00000 0.00000
117 3 1	15.44000 -2.00000 0.00000
118 3 1	16.40500 -2.00000 0.00000
119 3 1	17.37000 -2.00000 0.00000
120 3 1	18.33500 -2.00000 0.00000
121 4 1	-19.30000 2.00000 0.00000
122 4 1	-18.33500 2.00000 0.00000
123 4 1	-17.37000 2.00000 0.00000
124 4 1	-16.40500 2.00000 0.00000
125 4 1	-15.44000 2.00000 0.00000
126 4 1	-14.47500 2.00000 0.00000
127 4 1	-13.51000 2.00000 0.00000
128 4 1	-12.54500 2.00000 0.00000
129 4 1	-11.58000 2.00000 0.00000
130 4 1	-10.61500 2.00000 0.00000
131 4 1	-9.65000 2.00000 0.00000
132 4 1	-8.68500 2.00000 0.00000
133 4 1	-7.72000 2.00000 0.00000
134 4 1	-6.75500 2.00000 0.00000
135 4 1	-5.79000 2.00000 0.00000
136 4 1	-4.82500 2.00000 0.00000
137 4 1	-3.86000 2.00000 0.00000
138 4 1	-2.89500 2.00000 0.00000
139 4 1	-1.93000 2.00000 0.00000
140 4 1	-0.96500 2.00000 0.00000
141 4 1	-0.00000 2.00000 0.00000
142 4 1	0.96500 2.00000 0.00000
143 4 1	1.93000 2.00000 0.00000
144 4 1	2.89500 2.00000 0.00000
145 4 1	3.86000 2.00000 0.00000
146 4 1	4.82500 2.00000 0.00000
147 4 1	5.79000 2.00000 0.00000
148 4 1	6.75500 2.00000 0.00000
149 4 1	7.72000 2.00000 0.00000
150 4 1	8.68500 2.00000 0.00000
151 4 1	9.65000 2.00000 0.00000
152 4 1	10.61500 2.00000 0.00000
153 4 1	11.58000 2.00000 0.00000
154 4 1	12.54500 2.00000 0.00000
155 4 1	13.51000 2.00000 0.00000
156 4 1	14.47500 2.00000 0.00000
157 4 1	15.44000 2.00000 0.00000
158 4 1	16.40500 2.00000 0.00000
159 4 1	17.37000 2.00000 0.00000
160 4 1	18.33500 2.00000 0.00000
161 5 1	-19.30000 6.00000 0.00000
162 5 1	-18.33500 6.00000 0.00000
163 5 1	-17.37000 6.00000 0.00000
164 5 1	-16.40500 6.00000 0.00000
165 5 1	-15.44000 6.00000 0.00000
166 5 1	-14.47500 6.00000 0.00000
167 5 1	-13.51000 6.00000 0.00000
168 5 1	-12.54500 6.00000 0.00000
169 5 1	-11.58000 6.00000 0.00000
170 5 1	-10.61500 6.00000 0.00000
171 5 1	-9.65000 6.00000 0.00000
172 5 1	-8.68500 6.00000 0.00000
173 5 1	-7.72000 6.00000 0.00000
174 5 1	-6.75500 6.00000 0.00000
175 5 1	-5.79000 6.00000 0.00000
176 5 1	-4.82500 6.00000 0.00000
177 5 1	-3.86000 6.00000 0.00000
178 5 1	-2.89500 6.00000 0.00000
179 5 1	-1.93000 6.00000 0.00000
180 5 1	-0.96500 6.00000 0.00000
181 5 1	-0.00000 6.00000 0.00000
182 5 1	0.96500 6.00000 0.00000
183 5 1	1.93000 6.00000 0.00000
184 5 1	2.89500 6.00000 0.00000
185 5 1	3.86000 6.00000 0.00000
186 5 1	4.82500 6.00000 0.00000
187 5 1	5.79000 6.00000 0.00000
188 5 1	6.75500 6.00000 0.00000
189 5 1	7.72000 6.00000 0.00000
190 5 1	8.68500 6.00000 0.00000
191 5 1	9.65000 6.00000 0.00000
192 5 1	10.61500 6.00000 0.00000
193 5 1	11.58000 6.00000 0.00000
194 5 1	12.54500 6.00000 0.00000
195 5 1	13.51000 6.00000 0.00000
196 5 1	14.47500 6.00000 0.00000
197 5 1	15.44000 6.00000 0.00000
198 5 1	16.40500 6.00000 0.00000
199 5 1	17.37000 6.00000 0.00000
200 5 1	18.33500 6.00000 0.00000

Bonds

1 1 1 2
2 1 2 3
3 1 3 4
4 1 4 5
5 1 5 6
6 1 6 7
7 1 7 8
8 1 8 9
9 1 9 10
10 1 10 11
11 1 11 12
12 1 12 13
13 1 13 14
14 1 14 15
15 1 15 16
16 1 16 17
17 1 17 18
18 1 18 19
19 1 19 20
20 1 20 21
21 1 21 22
22 1 22 23
23 1 23 24
24 1 24 25
25 1 25 26
26 1 26 27
27 1 27 28
28 1 28 29
29 1 29 30
30 1 30 31
31 1 31 32
32 1 32 33
33 1 33 34
34 1 34 35
35 1 35 36
36 1 36 37
37 1 37 38
38 1 38 39
39 1 39 40
40 1 41 42
41 1 42 43
42 1 43 44
43 1 44 45
44 1 45 46
45 1 46 47
46 1 47 48
47 1 48 49
48 1 49 50
49 1 50 51
50 1 51 52
51 1 52 53
52 1 53 54
53 1 54 55
54 1 55 56
55 1 56 57
56 1 57 58
57 1 58 59
58 1 59 60
59 1 60 61
60 1 61 62
61 1 62 63
62 1 63 64
63 1 64 65
64 1 65 66
65 1 66 67
66 1 67 68
67 1 68 69
68 1 69 70
69 1 70 71
70 1 71 72
71 1 72 73
72 1 73 74
73 1 74 75
74 1 75 76
75 1 76 77
76 1 77 78
77 1 78 79
78 1 79 80
79 1 81 82
80 1 82 83
81 1 83 84
82 1 84 85
83 1 85 86
84 1 86 87
85 1 87 88
86 1 88 89
87 1 89 90
88 1 90 91
89 1 91 92
90 1 92 93
91 1 93 94
92 1 94 95
93 1 95 96
94 1 96 97
95 1 97 98
96 1 98 99
97 1 99 100
98 1 100 101
99 1 101 102
100 1 102 103
101 1 103 104
102 1 104 105
103 1 105 106
104 1 106 107
105 1 107 108
106 1 108 109
107 1 109 110
108 1 110 111
109 1 111 112
110 1 112 113
111 1 113 114
112 1 114 115
113 1 115 116
114 1 116 117
115 1 117 118
116 1 118 119
117 1 119 120
118 1 121 122
119 1 122 123
120 1 123 124
121 1 124 125
122 1 125 126
123 1 126 127
124 1 127 128
125 1 128 129
126 1 129 130
127 1 130 131
128 1 131 132
129 1 132 133
130 1 133 134
131 1 134 135
132 1 135 136
133 1 136 137
134 1 137 138
135 1 138 139
136 1 139 140
137 1 140 141
138 1 141 142
139 1 142 143
140 1 143 144
141 1 144 145
142 1 145 146
143 1 146 147
144 1 147 148
145 1 148 149
146 1 149 150
147 1 150 151
148 1 151 152
149 1 152 153
150 1 153 154
151 1 154 155
152 1 155 156
153 1 156 157
154 1 157 158
155 1 158 159
156 1 159 160
157 1 161 162
158 1 162 163
159 1 163 164
160 1 164 165
161 1 165 166
162 1 166 167
163 1 167 168
164 1 168 169
165 1 169 170
166 1 170 171
167 1 171 172
168 1 172 173
169 1 173 174
170 1 174 175
171 1 175 176
172 1 176 177
173 1 177 178
174 1 178 179
175 1 179 180
176 1 180 181
177 1 181 182
178 1 182 183
179 1 183 184
180 1 184 185
181 1 185 186
182 1 186 187
183 1 187 188
184 1 188 189
185 1 189 190
186 1 190 191
187 1 191 192
188 1 192 193
189 1 193 194
190 1 194 195
191 1 195 196
192 1 196 197
193 1 197 198
194 1 198 199
195 1 199 200
